
     Program PWSCF v.7.1 starts on 28Aug2024 at 20:25: 8 

     This program is part of the open-source Quantum ESPRESSO suite
     for quantum simulation of materials; please cite
         "P. Giannozzi et al., J. Phys.:Condens. Matter 21 395502 (2009);
         "P. Giannozzi et al., J. Phys.:Condens. Matter 29 465901 (2017);
         "P. Giannozzi et al., J. Chem. Phys. 152 154105 (2020);
          URL http://www.quantum-espresso.org", 
     in publications or presentations arising from this work. More details at
     http://www.quantum-espresso.org/quote

     Parallel version (MPI & OpenMP), running on      48 processor cores
     Number of MPI processes:                48
     Threads/MPI process:                     1

     MPI processes distributed on     1 nodes
     233130 MiB available memory on the printing compute node when the environment starts
 
     Reading input from diamond.in

     Current dimensions of program PWSCF are:
     Max number of different atomic species (ntypx) = 10
     Max number of k-points (npk) =  40000
     Max angular momentum in pseudopotentials (lmaxx) =  4
 
     K-points division:     npool     =       3
     R & G space division:  proc/nbgrp/npool/nimage =      16
     Subspace diagonalization in iterative solution of the eigenvalue problem:
     a serial algorithm will be used

 
     Parallelization info
     --------------------
     sticks:   dense  smooth     PW     G-vecs:    dense   smooth      PW
     Min           6       6      2                   43       43       9
     Max           7       7      3                   45       45      12
     Sum         109     109     37                  701      701     169
 
     Using Slab Decomposition
 


     bravais-lattice index     =            2
     lattice parameter (alat)  =       6.1000  a.u.
     unit-cell volume          =      56.7452 (a.u.)^3
     number of atoms/cell      =            2
     number of atomic types    =            1
     number of electrons       =         8.00
     number of Kohn-Sham states=            4
     kinetic-energy cutoff     =      20.0000  Ry
     charge density cutoff     =      80.0000  Ry
     scf convergence threshold =      1.0E-13
     mixing beta               =       0.7000
     number of iterations used =            8  plain     mixing
     Exchange-correlation=  SLA  PZ   NOGX NOGC
                           (   1   1   0   0   0   0   0)

     celldm(1)=   6.100000  celldm(2)=   0.000000  celldm(3)=   0.000000
     celldm(4)=   0.000000  celldm(5)=   0.000000  celldm(6)=   0.000000

     crystal axes: (cart. coord. in units of alat)
               a(1) = (  -0.500000   0.000000   0.500000 )  
               a(2) = (   0.000000   0.500000   0.500000 )  
               a(3) = (  -0.500000   0.500000   0.000000 )  

     reciprocal axes: (cart. coord. in units 2 pi/alat)
               b(1) = ( -1.000000 -1.000000  1.000000 )  
               b(2) = (  1.000000  1.000000  1.000000 )  
               b(3) = ( -1.000000  1.000000 -1.000000 )  


     PseudoPot. # 1 for C  read from file:
     ./C.pz-vbc.UPF
     MD5 check sum: 902016046bf83189dffe9ec1c2a452ce
     Pseudo is Norm-conserving, Zval =  4.0
     Generated by new atomic code, or converted to UPF format
     Using radial grid of  269 points,  1 beta functions with: 
                l(1) =   0

     atomic species   valence    mass     pseudopotential
        C              4.00    12.00000     C ( 1.00)

     48 Sym. Ops., with inversion, found (36 have fractional translation)



   Cartesian axes

     site n.     atom                  positions (alat units)
         1           C   tau(   1) = (   0.1250000  -0.1250000  -0.1250000  )
         2           C   tau(   2) = (  -0.1250000   0.1250000   0.1250000  )

     number of k points=     3
                       cart. coord. in units 2pi/alat
        k(    1) = (   0.0000000   0.0000000   0.0000000), wk =   0.2500000
        k(    2) = (   0.5000000  -0.5000000   0.5000000), wk =   1.0000000
        k(    3) = (   0.0000000  -1.0000000   0.0000000), wk =   0.7500000

     Dense  grid:      701 G-vectors     FFT dimensions: (  16,  16,  16)

     Estimated max dynamical RAM per process >       0.05 MB

     Estimated total dynamical RAM >       1.93 MB
     Message from routine sym_rho_init:
     some processors have no G-vectors for symmetrization
     Message from routine sym_rho_init:
     some processors have no G-vectors for symmetrization
     Message from routine sym_rho_init:
     some processors have no G-vectors for symmetrization

     Initial potential from superposition of free atoms

     starting charge       7.9999, renormalised to       8.0000
     Starting wfcs are    8 randomized atomic wfcs

     total cpu time spent up to now is        0.1 secs

     Self-consistent Calculation

     iteration #  1     ecut=    20.00 Ry     beta= 0.70
     Davidson diagonalization with overlap
     ethr =  1.00E-02,  avg # of iterations =  2.0

     total cpu time spent up to now is        0.1 secs

     total energy              =     -21.65736872 Ry
     estimated scf accuracy    <       0.22888640 Ry

     iteration #  2     ecut=    20.00 Ry     beta= 0.70
     Davidson diagonalization with overlap
     ethr =  2.86E-03,  avg # of iterations =  1.0

     total cpu time spent up to now is        0.1 secs

     total energy              =     -21.66770659 Ry
     estimated scf accuracy    <       0.00735728 Ry

     iteration #  3     ecut=    20.00 Ry     beta= 0.70
     Davidson diagonalization with overlap
     ethr =  9.20E-05,  avg # of iterations =  1.7

     total cpu time spent up to now is        0.1 secs

     total energy              =     -21.66855327 Ry
     estimated scf accuracy    <       0.00010054 Ry

     iteration #  4     ecut=    20.00 Ry     beta= 0.70
     Davidson diagonalization with overlap
     ethr =  1.26E-06,  avg # of iterations =  2.7

     total cpu time spent up to now is        0.1 secs

     total energy              =     -21.66856813 Ry
     estimated scf accuracy    <       0.00000239 Ry

     iteration #  5     ecut=    20.00 Ry     beta= 0.70
     Davidson diagonalization with overlap
     ethr =  2.98E-08,  avg # of iterations =  2.7

     total cpu time spent up to now is        0.1 secs

     total energy              =     -21.66856869 Ry
     estimated scf accuracy    <       0.00000001 Ry

     iteration #  6     ecut=    20.00 Ry     beta= 0.70
     Davidson diagonalization with overlap
     ethr =  1.50E-10,  avg # of iterations =  3.3

     total cpu time spent up to now is        0.1 secs

     total energy              =     -21.66856869 Ry
     estimated scf accuracy    <          2.4E-09 Ry

     iteration #  7     ecut=    20.00 Ry     beta= 0.70
     Davidson diagonalization with overlap
     ethr =  3.03E-11,  avg # of iterations =  1.0

     total cpu time spent up to now is        0.1 secs

     total energy              =     -21.66856869 Ry
     estimated scf accuracy    <          3.0E-12 Ry

     iteration #  8     ecut=    20.00 Ry     beta= 0.70
     Davidson diagonalization with overlap
     ethr =  1.00E-13,  avg # of iterations =  4.0

     total cpu time spent up to now is        0.1 secs

     total energy              =     -21.66856869 Ry
     estimated scf accuracy    <          1.6E-12 Ry

     iteration #  9     ecut=    20.00 Ry     beta= 0.70
     Davidson diagonalization with overlap
     ethr =  1.00E-13,  avg # of iterations =  1.0

     total cpu time spent up to now is        0.1 secs

     End of self-consistent calculation

          k = 0.0000 0.0000 0.0000 (    65 PWs)   bands (ev):

    -5.8511  22.3105  22.3105  22.3105

          k = 0.5000-0.5000 0.5000 (    90 PWs)   bands (ev):

     2.0716   2.7385  16.9885  16.9885

          k = 0.0000-1.0000 0.0000 (    92 PWs)   bands (ev):

     4.9352   4.9352  12.0615  12.0615

     highest occupied level (ev):    22.3105

!    total energy              =     -21.66856869 Ry
     estimated scf accuracy    <          1.8E-14 Ry

     The total energy is the sum of the following terms:
     one-electron contribution =      12.60145229 Ry
     hartree contribution      =       1.60427484 Ry
     xc contribution           =      -7.61568303 Ry
     ewald contribution        =     -28.25861279 Ry

     convergence has been achieved in   9 iterations

     Writing all to output data dir ./di.save/
 
     init_run     :      0.02s CPU      0.02s WALL (       1 calls)
     electrons    :      0.01s CPU      0.07s WALL (       1 calls)

     Called by init_run:
     wfcinit      :      0.00s CPU      0.00s WALL (       1 calls)
     potinit      :      0.00s CPU      0.00s WALL (       1 calls)
     hinit0       :      0.01s CPU      0.02s WALL (       1 calls)

     Called by electrons:
     c_bands      :      0.01s CPU      0.01s WALL (       9 calls)
     sum_band     :      0.00s CPU      0.00s WALL (       9 calls)
     v_of_rho     :      0.00s CPU      0.00s WALL (      10 calls)
     mix_rho      :      0.00s CPU      0.00s WALL (       9 calls)

     Called by c_bands:
     init_us_2    :      0.00s CPU      0.00s WALL (      19 calls)
     init_us_2:cp :      0.00s CPU      0.00s WALL (      19 calls)
     cegterg      :      0.01s CPU      0.01s WALL (       9 calls)

     Called by *egterg:
     cdiaghg      :      0.00s CPU      0.00s WALL (      32 calls)
     h_psi        :      0.01s CPU      0.01s WALL (      33 calls)
     g_psi        :      0.00s CPU      0.00s WALL (      23 calls)

     Called by h_psi:
     h_psi:calbec :      0.00s CPU      0.00s WALL (      33 calls)
     vloc_psi     :      0.00s CPU      0.01s WALL (      33 calls)
     add_vuspsi   :      0.00s CPU      0.00s WALL (      33 calls)

     General routines
     calbec       :      0.00s CPU      0.00s WALL (      33 calls)
     fft          :      0.01s CPU      0.02s WALL (      29 calls)
     ffts         :      0.00s CPU      0.00s WALL (       9 calls)
     fftw         :      0.01s CPU      0.01s WALL (     250 calls)
 
     Parallel routines
 
     PWSCF        :      0.09s CPU      0.42s WALL

 
   This run was terminated on:  20:25: 9  28Aug2024            

=------------------------------------------------------------------------------=
   JOB DONE.
=------------------------------------------------------------------------------=
